    1C
    1UUSER                                                              
    1UDATE              08.july.2026                                    
    1UTIME              12:17:16                                        
    1UHOST                                                              
    1UPGM               CalculiX                                        
    1UVERSION           Version 2.23                             
    1UCOMPILETIME       Sun Oct 19 18:23:34 CEST 2025                    
    1UDIR                                                               
    1UDBN                                                               
    1UMAT    1MAT1                                                      
    2C                           110                                     1
 -1         1-2.00000E+00-2.00000E+00 0.00000E+00
 -1         2-2.00000E+00-2.00000E+00 2.00000E+01
 -1         3-2.00000E+00 2.00000E+00 0.00000E+00
 -1         4-2.00000E+00 2.00000E+00 2.00000E+01
 -1         5 2.00000E+00-2.00000E+00 0.00000E+00
 -1         6 2.00000E+00-2.00000E+00 2.00000E+01
 -1         7 2.00000E+00 2.00000E+00 0.00000E+00
 -1         8 2.00000E+00 2.00000E+00 2.00000E+01
 -1         9-2.00000E+00-2.00000E+00 2.00000E+00
 -1        10-2.00000E+00-2.00000E+00 4.00000E+00
 -1        11-2.00000E+00-2.00000E+00 6.00000E+00
 -1        12-2.00000E+00-2.00000E+00 8.00000E+00
 -1        13-2.00000E+00-2.00000E+00 1.00000E+01
 -1        14-2.00000E+00-2.00000E+00 1.20000E+01
 -1        15-2.00000E+00-2.00000E+00 1.40000E+01
 -1        16-2.00000E+00-2.00000E+00 1.60000E+01
 -1        17-2.00000E+00-2.00000E+00 1.80000E+01
 -1        18-2.00000E+00 6.66134E-15 0.00000E+00
 -1        19-2.00000E+00 2.00000E+00 2.00000E+00
 -1        20-2.00000E+00 2.00000E+00 4.00000E+00
 -1        21-2.00000E+00 2.00000E+00 6.00000E+00
 -1        22-2.00000E+00 2.00000E+00 8.00000E+00
 -1        23-2.00000E+00 2.00000E+00 1.00000E+01
 -1        24-2.00000E+00 2.00000E+00 1.20000E+01
 -1        25-2.00000E+00 2.00000E+00 1.40000E+01
 -1        26-2.00000E+00 2.00000E+00 1.60000E+01
 -1        27-2.00000E+00 2.00000E+00 1.80000E+01
 -1        28-2.00000E+00 6.66134E-15 2.00000E+01
 -1        29 2.00000E+00-2.00000E+00 2.00000E+00
 -1        30 2.00000E+00-2.00000E+00 4.00000E+00
 -1        31 2.00000E+00-2.00000E+00 6.00000E+00
 -1        32 2.00000E+00-2.00000E+00 8.00000E+00
 -1        33 2.00000E+00-2.00000E+00 1.00000E+01
 -1        34 2.00000E+00-2.00000E+00 1.20000E+01
 -1        35 2.00000E+00-2.00000E+00 1.40000E+01
 -1        36 2.00000E+00-2.00000E+00 1.60000E+01
 -1        37 2.00000E+00-2.00000E+00 1.80000E+01
 -1        38 2.00000E+00 6.66134E-15 0.00000E+00
 -1        39 2.00000E+00 2.00000E+00 2.00000E+00
 -1        40 2.00000E+00 2.00000E+00 4.00000E+00
 -1        41 2.00000E+00 2.00000E+00 6.00000E+00
 -1        42 2.00000E+00 2.00000E+00 8.00000E+00
 -1        43 2.00000E+00 2.00000E+00 1.00000E+01
 -1        44 2.00000E+00 2.00000E+00 1.20000E+01
 -1        45 2.00000E+00 2.00000E+00 1.40000E+01
 -1        46 2.00000E+00 2.00000E+00 1.60000E+01
 -1        47 2.00000E+00 2.00000E+00 1.80000E+01
 -1        48 2.00000E+00 6.66134E-15 2.00000E+01
 -1        49 6.66134E-15-2.00000E+00 0.00000E+00
 -1        50 6.66134E-15-2.00000E+00 2.00000E+01
 -1        51 6.66134E-15 2.00000E+00 0.00000E+00
 -1        52 6.66134E-15 2.00000E+00 2.00000E+01
 -1        53-2.00000E+00 2.14122E-03 1.30049E+01
 -1        54-2.00000E+00-9.10547E-02 7.00000E+00
 -1        55-2.00000E+00-2.67949E-01 3.00000E+00
 -1        56-2.00000E+00-2.67949E-01 1.70000E+01
 -1        57-2.00000E+00 4.13558E-02 9.00000E+00
 -1        58-2.00000E+00 6.97018E-02 5.00000E+00
 -1        59-2.00000E+00 7.24950E-03 1.10008E+01
 -1        60-2.00000E+00 8.39192E-02 1.50147E+01
 -1        61-2.00000E+00 5.32635E-01 1.86851E+01
 -1        62-2.00000E+00 5.32635E-01 1.31490E+00
 -1        63-2.00000E+00-8.44036E-01 1.15962E+00
 -1        64-2.00000E+00-8.44036E-01 1.88404E+01
 -1        65 2.00000E+00-9.10547E-02 7.00000E+00
 -1        66 2.00000E+00-2.14122E-03 1.29951E+01
 -1        67 2.00000E+00-2.67949E-01 3.00000E+00
 -1        68 2.00000E+00-2.67949E-01 1.70000E+01
 -1        69 2.00000E+00 1.05004E-01 8.99752E+00
 -1        70 2.00000E+00 7.72625E-02 1.49996E+01
 -1        71 2.00000E+00 6.97018E-02 5.00000E+00
 -1        72 2.00000E+00-4.98922E-02 1.09908E+01
 -1        73 2.00000E+00 5.32635E-01 1.86851E+01
 -1        74 2.00000E+00 5.32635E-01 1.31490E+00
 -1        75 2.00000E+00-8.44036E-01 1.15962E+00
 -1        76 2.00000E+00-8.44036E-01 1.88404E+01
 -1        77-2.78343E-02-2.00000E+00 7.00000E+00
 -1        78-7.65404E-02-2.00000E+00 1.30070E+01
 -1        79-2.67949E-01-2.00000E+00 3.00000E+00
 -1        80 2.67949E-01-2.00000E+00 1.70000E+01
 -1        81 3.16311E-02-2.00000E+00 9.00491E+00
 -1        82 7.50777E-02-2.00000E+00 5.00000E+00
 -1        83-9.02457E-02-2.00000E+00 1.50149E+01
 -1        84-7.48489E-03-2.00000E+00 1.10020E+01
 -1        85-5.32635E-01-2.00000E+00 1.86851E+01
 -1        86 5.32635E-01-2.00000E+00 1.31490E+00
 -1        87-8.44036E-01-2.00000E+00 1.15962E+00
 -1        88 8.44036E-01-2.00000E+00 1.88404E+01
 -1        89-2.78343E-02 2.00000E+00 7.00000E+00
 -1        90-7.65404E-02 2.00000E+00 1.30070E+01
 -1        91-2.67949E-01 2.00000E+00 3.00000E+00
 -1        92 2.67949E-01 2.00000E+00 1.70000E+01
 -1        93 3.16311E-02 2.00000E+00 9.00491E+00
 -1        94 7.50777E-02 2.00000E+00 5.00000E+00
 -1        95-9.02457E-02 2.00000E+00 1.50149E+01
 -1        96-7.48489E-03 2.00000E+00 1.10020E+01
 -1        97-5.32635E-01 2.00000E+00 1.86851E+01
 -1        98 5.32635E-01 2.00000E+00 1.31490E+00
 -1        99-8.44036E-01 2.00000E+00 1.15962E+00
 -1       100 8.44036E-01 2.00000E+00 1.88404E+01
 -1       101-9.54446E-01-9.54446E-01 0.00000E+00
 -1       102-5.00000E-01 5.00000E-01 0.00000E+00
 -1       103 5.70092E-01-5.96574E-01 0.00000E+00
 -1       104 8.75000E-01 8.75000E-01 0.00000E+00
 -1       105-9.54446E-01-9.54446E-01 2.00000E+01
 -1       106-5.00000E-01 5.00000E-01 2.00000E+01
 -1       107 5.70092E-01-5.96574E-01 2.00000E+01
 -1       108 8.75000E-01 8.75000E-01 2.00000E+01
 -1       109 4.17476E-02-4.17476E-02 1.79821E+01
 -1       110 5.30384E-02-3.07295E-02 1.99615E+00
 -3
    3C                           254                                     1
 -1         1    3    0    1
 -2        84        96        81        59
 -1         2    3    0    1
 -2        81        59        96        57
 -1         3    3    0    1
 -2        72        96        84        66
 -1         4    3    0    1
 -2        96        84        81        72
 -1         5    3    0    1
 -2        96        81        57        93
 -1         6    3    0    1
 -2        96        81        93        72
 -1         7    3    0    1
 -2        90        78        96        66
 -1         8    3    0    1
 -2        93        77        89        69
 -1         9    3    0    1
 -2        93        81        77        69
 -1        10    3    0    1
 -2        71        58        89        94
 -1        11    3    0    1
 -2        66        90        78        70
 -1        12    3    0    1
 -2        69        77        89        65
 -1        13    3    0    1
 -2        93        81        69        72
 -1        14    3    0    1
 -2        71        82        58       110
 -1        15    3    0    1
 -2        71        58        94       110
 -1        16    3    0    1
 -2        83        70        95       109
 -1        17    3    0    1
 -2        95        60        83       109
 -1        18    3    0    1
 -2        91        94        58       110
 -1        19    3    0    1
 -2        58        82        79       110
 -1        20    3    0    1
 -2        67        82        71       110
 -1        21    3    0    1
 -2        92        95        70       109
 -1        22    3    0    1
 -2        68        70        83       109
 -1        23    3    0    1
 -2        83        60        56       109
 -1        24    3    0    1
 -2        55        58        79       110
 -1        25    3    0    1
 -2        71        94        91       110
 -1        26    3    0    1
 -2        80        68        83       109
 -1        27    3    0    1
 -2        56        60        95       109
 -1        28    3    0    1
 -2        91        58        55       110
 -1        29    3    0    1
 -2        71        91        67       110
 -1        30    3    0    1
 -2        67        79        82       110
 -1        31    3    0    1
 -2        95        92        56       109
 -1        32    3    0    1
 -2        92        70        68       109
 -1        33    3    0    1
 -2        83        56        80       109
 -1        34    3    0    1
 -2        13        59        84        81
 -1        35    3    0    1
 -2        59        13        57        81
 -1        36    3    0    1
 -2        66        72        96        44
 -1        37    3    0    1
 -2        66        84        72        34
 -1        38    3    0    1
 -2        57        59        96        23
 -1        39    3    0    1
 -2        96        90        66        44
 -1        40    3    0    1
 -2        66        78        84        34
 -1        41    3    0    1
 -2        23        96        57        93
 -1        42    3    0    1
 -2        14        59        53        78
 -1        43    3    0    1
 -2        59        14        84        78
 -1        44    3    0    1
 -2        59        53        90        24
 -1        45    3    0    1
 -2        90        96        59        24
 -1        46    3    0    1
 -2        45        90        66        70
 -1        47    3    0    1
 -2        12        77        54        81
 -1        48    3    0    1
 -2        57        12        54        81
 -1        49    3    0    1
 -2        54        77        11        82
 -1        50    3    0    1
 -2        91        71        40        94
 -1        51    3    0    1
 -2        58        54        11        82
 -1        52    3    0    1
 -2        94        89        71        41
 -1        53    3    0    1
 -2        89        71        41        65
 -1        54    3    0    1
 -2        72        84        81        33
 -1        55    3    0    1
 -2        95        90        45        70
 -1        56    3    0    1
 -2        93        69        89        42
 -1        57    3    0    1
 -2        60        95        26        56
 -1        58    3    0    1
 -2        53        15        78        83
 -1        59    3    0    1
 -2        15        53        60        83
 -1        60    3    0    1
 -2        53        60        90        25
 -1        61    3    0    1
 -2        21        89        58        94
 -1        62    3    0    1
 -2        42        69        89        65
 -1        63    3    0    1
 -2        89        54        21        58
 -1        64    3    0    1
 -2        81        69        72        33
 -1        65    3    0    1
 -2        71        91        40        67
 -1        66    3    0    1
 -2        95        90        60        25
 -1        67    3    0    1
 -2        82        65        77        31
 -1        68    3    0    1
 -2        71        65        82        31
 -1        69    3    0    1
 -2        56        95        26        92
 -1        70    3    0    1
 -2        10        79        58        82
 -1        71    3    0    1
 -2        68        36        83        70
 -1        72    3    0    1
 -2        10        79        55        58
 -1        73    3    0    1
 -2        83        80        36        68
 -1        74    3    0    1
 -2        58        91        20        94
 -1        75    3    0    1
 -2        82        67        71        30
 -1        76    3    0    1
 -2        46        92        95        70
 -1        77    3    0    1
 -2        16        60        56        83
 -1        78    3    0    1
 -2        87        63         9       110
 -1        79    3    0    1
 -2        55        91        20        58
 -1        80    3    0    1
 -2        82        79        67        30
 -1        81    3    0    1
 -2        68        92        46        70
 -1        82    3    0    1
 -2        83        56        16        80
 -1        83    3    0    1
 -2        76        37        88       109
 -1        84    3    0    1
 -2       108        97       100       109
 -1        85    3    0    1
 -2        27        97        61       109
 -1        86    3    0    1
 -2        27        56        92       109
 -1        87    3    0    1
 -2        99        91        62       110
 -1        88    3    0    1
 -2        39        67        91       110
 -1        89    3    0    1
 -2        27        61        56       109
 -1        90    3    0    1
 -2        27        92        97       109
 -1        91    3    0    1
 -2        63       101       102       110
 -1        92    3    0    1
 -2        63        87       101       110
 -1        93    3    0    1
 -2        39        40        91        67
 -1        94    3    0    1
 -2        56        26        27        92
 -1        95    3    0    1
 -2        64       105        85       109
 -1        96    3    0    1
 -2        55         9        63       110
 -1        97    3    0    1
 -2        79        87         9       110
 -1        98    3    0    1
 -2       108       106        97       109
 -1        99    3    0    1
 -2        62        91        99        19
 -1       100    3    0    1
 -2        58        11        10        82
 -1       101    3    0    1
 -2        64        85        17       109
 -1       102    3    0    1
 -2       100        47        73       109
 -1       103    3    0    1
 -2        62        91        55       110
 -1       104    3    0    1
 -2        36        35        83        70
 -1       105    3    0    1
 -2       108       100        73       109
 -1       106    3    0    1
 -2        57        13        12        81
 -1       107    3    0    1
 -2        98        39        91       110
 -1       108    3    0    1
 -2        73        47        68       109
 -1       109    3    0    1
 -2        17        85        80       109
 -1       110    3    0    1
 -2        41        42        89        65
 -1       111    3    0    1
 -2        98        74        39       110
 -1       112    3    0    1
 -2       105       107        85       109
 -1       113    3    0    1
 -2        74        67        39       110
 -1       114    3    0    1
 -2        44        72        96        43
 -1       115    3    0    1
 -2        14        13        59        84
 -1       116    3    0    1
 -2        24        96        59        23
 -1       117    3    0    1
 -2        44        90        66        45
 -1       118    3    0    1
 -2        78        66        35        34
 -1       119    3    0    1
 -2       104        74        98       110
 -1       120    3    0    1
 -2       107       108        73       109
 -1       121    3    0    1
 -2        86        79        29       110
 -1       122    3    0    1
 -2        54        21        22        89
 -1       123    3    0    1
 -2        91        62        55        19
 -1       124    3    0    1
 -2        69        81        32        33
 -1       125    3    0    1
 -2       104       103        74       110
 -1       126    3    0    1
 -2        76        68        37       109
 -1       127    3    0    1
 -2        80        88        37       109
 -1       128    3    0    1
 -2        23        57        22        93
 -1       129    3    0    1
 -2        75        86        29       110
 -1       130    3    0    1
 -2        24        53        90        25
 -1       131    3    0    1
 -2       101        87        49        86
 -1       132    3    0    1
 -2        61        28        64       105
 -1       133    3    0    1
 -2       104        98       102       110
 -1       134    3    0    1
 -2        84        72        34        33
 -1       135    3    0    1
 -2        53        15        14        78
 -1       136    3    0    1
 -2        49       103       101        86
 -1       137    3    0    1
 -2        63       102        62       110
 -1       138    3    0    1
 -2        32        77        65        31
 -1       139    3    0    1
 -2        20        21        58        94
 -1       140    3    0    1
 -2        31        82        71        30
 -1       141    3    0    1
 -2        79         9        55       110
 -1       142    3    0    1
 -2        45        46        95        70
 -1       143    3    0    1
 -2        28        61       106       105
 -1       144    3    0    1
 -2        11        12        77        54
 -1       145    3    0    1
 -2        62       102        99       110
 -1       146    3    0    1
 -2        92        47       100       109
 -1       147    3    0    1
 -2        56        64        17       109
 -1       148    3    0    1
 -2        97       106        61       109
 -1       149    3    0    1
 -2         7        98       104        74
 -1       150    3    0    1
 -2        15        60        16        83
 -1       151    3    0    1
 -2        97        52       108       100
 -1       152    3    0    1
 -2       105       106       107       109
 -1       153    3    0    1
 -2        92        68        47       109
 -1       154    3    0    1
 -2        17        80        56       109
 -1       155    3    0    1
 -2        69        93        43        42
 -1       156    3    0    1
 -2       107        73        76       109
 -1       157    3    0    1
 -2       107        76        88       109
 -1       158    3    0    1
 -2       101       103       102       110
 -1       159    3    0    1
 -2       102        98        99       110
 -1       160    3    0    1
 -2        67        29        79       110
 -1       161    3    0    1
 -2        85       107        88       109
 -1       162    3    0    1
 -2        75        74       103       110
 -1       163    3    0    1
 -2        75       103        86       110
 -1       164    3    0    1
 -2        80        37        68       109
 -1       165    3    0    1
 -2        97        52       106       108
 -1       166    3    0    1
 -2        75        29        67       110
 -1       167    3    0    1
 -2       106         4        97        61
 -1       168    3    0    1
 -2       106       108       107       109
 -1       169    3    0    1
 -2        48        73       107       108
 -1       170    3    0    1
 -2       104        38        74       103
 -1       171    3    0    1
 -2        71        94        41        40
 -1       172    3    0    1
 -2        60        95        25        26
 -1       173    3    0    1
 -2       107       105        85        50
 -1       174    3    0    1
 -2       102       103       104       110
 -1       175    3    0    1
 -2        46        92        68        47
 -1       176    3    0    1
 -2        55        91        19        20
 -1       177    3    0    1
 -2        29        67        79        30
 -1       178    3    0    1
 -2        56        17        16        80
 -1       179    3    0    1
 -2       102        51        98       104
 -1       180    3    0    1
 -2        55        63        62       110
 -1       181    3    0    1
 -2        99        98        91       110
 -1       182    3    0    1
 -2        64        56        61       109
 -1       183    3    0    1
 -2       100        97        92       109
 -1       184    3    0    1
 -2         5        75       103        86
 -1       185    3    0    1
 -2         3        62       102        99
 -1       186    3    0    1
 -2         8        73       108       100
 -1       187    3    0    1
 -2        79        86        87       110
 -1       188    3    0    1
 -2       107        76        73        48
 -1       189    3    0    1
 -2        75        74        38       103
 -1       190    3    0    1
 -2        85        64         2       105
 -1       191    3    0    1
 -2        80        85        88       109
 -1       192    3    0    1
 -2        68        76        73       109
 -1       193    3    0    1
 -2        61       106         4        28
 -1       194    3    0    1
 -2        62        18         3       102
 -1       195    3    0    1
 -2         4        97        52       106
 -1       196    3    0    1
 -2        49         5       103        86
 -1       197    3    0    1
 -2        74        75        67       110
 -1       198    3    0    1
 -2        88       107        85        50
 -1       199    3    0    1
 -2        99       102        51        98
 -1       200    3    0    1
 -2        98        51         7       104
 -1       201    3    0    1
 -2         7       104        38        74
 -1       202    3    0    1
 -2         8        73        48       108
 -1       203    3    0    1
 -2       105         2        85        50
 -1       204    3    0    1
 -2        88       107         6        76
 -1       205    3    0    1
 -2        79         9        10        55
 -1       206    3    0    1
 -2        80        37        36        68
 -1       207    3    0    1
 -2        98         7        39        74
 -1       208    3    0    1
 -2        76       107         6        48
 -1       209    3    0    1
 -2        75        38         5       103
 -1       210    3    0    1
 -2        51         3       102        99
 -1       211    3    0    1
 -2         6       107        88        50
 -1       212    3    0    1
 -2         4        27        97        61
 -1       213    3    0    1
 -2       108        52         8       100
 -1       214    3    0    1
 -2        64        28         2       105
 -1       215    3    0    1
 -2        63       101         1        18
 -1       216    3    0    1
 -2       101        87         1        49
 -1       217    3    0    1
 -2         1        87       101        63
 -1       218    3    0    1
 -2        17        64         2        85
 -1       219    3    0    1
 -2       100         8        73        47
 -1       220    3    0    1
 -2        86         5        75        29
 -1       221    3    0    1
 -2        87         1         9        63
 -1       222    3    0    1
 -2        37        88         6        76
 -1       223    3    0    1
 -2        99         3        62        19
 -1       224    3    0    1
 -2        96        78        84        66
 -1       225    3    0    1
 -2        96        84        78        59
 -1       226    3    0    1
 -2        70        90        83        95
 -1       227    3    0    1
 -2        60        83        90        95
 -1       228    3    0    1
 -2        60        90        83        53
 -1       229    3    0    1
 -2        58        89        82        71
 -1       230    3    0    1
 -2        65        89        82        77
 -1       231    3    0    1
 -2        65        82        89        71
 -1       232    3    0    1
 -2        77        69        32        65
 -1       233    3    0    1
 -2        77        32        69        81
 -1       234    3    0    1
 -2        90        59        78        53
 -1       235    3    0    1
 -2        90        78        59        96
 -1       236    3    0    1
 -2        54        82        89        77
 -1       237    3    0    1
 -2        89        82        54        58
 -1       238    3    0    1
 -2        54        81        93        57
 -1       239    3    0    1
 -2        93        81        54        77
 -1       240    3    0    1
 -2        54        89        93        77
 -1       241    3    0    1
 -2        72        93        43        69
 -1       242    3    0    1
 -2        43        93        72        96
 -1       243    3    0    1
 -2        70        78        35        83
 -1       244    3    0    1
 -2        70        35        78        66
 -1       245    3    0    1
 -2       101        86       110        87
 -1       246    3    0    1
 -2       110        86       101       103
 -1       247    3    0    1
 -2       105        61       109        64
 -1       248    3    0    1
 -2       105       109        61       106
 -1       249    3    0    1
 -2        63       102        18        62
 -1       250    3    0    1
 -2        18       102        63       101
 -1       251    3    0    1
 -2        90        83        78        70
 -1       252    3    0    1
 -2        90        78        83        53
 -1       253    3    0    1
 -2        93        54        22        89
 -1       254    3    0    1
 -2        22        54        93        57
 -3
    1PSTEP                         1           1           1          
  100CL  101 1.000000000         110                     0    1           1
 -4  DISP        4    1
 -5  D1          1    2    1    0
 -5  D2          1    2    2    0
 -5  D3          1    2    3    0
 -5  ALL         1    2    0    0    1ALL
 -1         1 0.00000E+00 0.00000E+00 0.00000E+00
 -1         2 1.76963E-01-2.73505E-03 2.41418E-02
 -1         3 0.00000E+00 0.00000E+00 0.00000E+00
 -1         4 1.76342E-01-2.70172E-03 2.48251E-02
 -1         5 0.00000E+00 0.00000E+00 0.00000E+00
 -1         6 1.76951E-01-2.11219E-03-2.47762E-02
 -1         7 0.00000E+00 0.00000E+00 0.00000E+00
 -1         8 1.76419E-01-2.15638E-03-2.41557E-02
 -1         9 4.33212E-03 5.87669E-04 5.40661E-03
 -1        10 1.27365E-02 1.48874E-05 1.02596E-02
 -1        11 2.53099E-02-1.03990E-04 1.39488E-02
 -1        12 4.12756E-02-3.23788E-04 1.62455E-02
 -1        13 5.98467E-02-6.21221E-04 1.90901E-02
 -1        14 8.07941E-02-9.25258E-04 2.07163E-02
 -1        15 1.03542E-01-1.37573E-03 2.22239E-02
 -1        16 1.27416E-01-1.97673E-03 2.34640E-02
 -1        17 1.52074E-01-2.32166E-03 2.38916E-02
 -1        18 0.00000E+00 0.00000E+00 0.00000E+00
 -1        19 4.20337E-03-9.79402E-04 5.85321E-03
 -1        20 1.26695E-02-8.87520E-04 1.06030E-02
 -1        21 2.51111E-02-9.92821E-04 1.32514E-02
 -1        22 4.07042E-02-1.05593E-03 1.66018E-02
 -1        23 5.96089E-02-1.34705E-03 1.90042E-02
 -1        24 8.02536E-02-1.37247E-03 2.12898E-02
 -1        25 1.02904E-01-1.83122E-03 2.32331E-02
 -1        26 1.26916E-01-2.13077E-03 2.42019E-02
 -1        27 1.51485E-01-2.44434E-03 2.46081E-02
 -1        28 1.76603E-01-2.72234E-03 2.44848E-02
 -1        29 4.29350E-03-6.99357E-04-5.90099E-03
 -1        30 1.30629E-02-3.47465E-04-9.89869E-03
 -1        31 2.55101E-02-7.13926E-04-1.44186E-02
 -1        32 4.13944E-02-8.80239E-04-1.71732E-02
 -1        33 5.98898E-02-8.07019E-04-1.98599E-02
 -1        34 8.08738E-02-1.03688E-03-2.17782E-02
 -1        35 1.03411E-01-1.23624E-03-2.32699E-02
 -1        36 1.27405E-01-1.54184E-03-2.42088E-02
 -1        37 1.52047E-01-1.87076E-03-2.45837E-02
 -1        38 0.00000E+00 0.00000E+00 0.00000E+00
 -1        39 3.88954E-03 9.33795E-04-5.53793E-03
 -1        40 1.27884E-02 4.76087E-04-9.85726E-03
 -1        41 2.50693E-02 3.57095E-04-1.30549E-02
 -1        42 4.07592E-02-7.75397E-05-1.67231E-02
 -1        43 5.94119E-02-2.98572E-04-1.93214E-02
 -1        44 8.02862E-02-5.85361E-04-2.12260E-02
 -1        45 1.02848E-01-9.68889E-04-2.26404E-02
 -1        46 1.26859E-01-1.36580E-03-2.33742E-02
 -1        47 1.51484E-01-1.73857E-03-2.39358E-02
 -1        48 1.76604E-01-2.13465E-03-2.44686E-02
 -1        49 0.00000E+00 0.00000E+00 0.00000E+00
 -1        50 1.76899E-01-2.41732E-03-3.26954E-04
 -1        51 0.00000E+00 0.00000E+00 0.00000E+00
 -1        52 1.76329E-01-2.41721E-03 3.52459E-04
 -1        53 9.18625E-02-1.32852E-03 2.19062E-02
 -1        54 3.25086E-02-4.47373E-04 1.51317E-02
 -1        55 8.78562E-03-1.79248E-04 8.49870E-03
 -1        56 1.39510E-01-2.21918E-03 2.38107E-02
 -1        57 5.02891E-02-1.02011E-03 1.78676E-02
 -1        58 1.84906E-02-6.84751E-04 1.17442E-02
 -1        59 6.97352E-02-9.37736E-04 2.01214E-02
 -1        60 1.15168E-01-1.87598E-03 2.32928E-02
 -1        61 1.60170E-01-2.49597E-03 2.44812E-02
 -1        62 1.99452E-03-3.20897E-04 4.10775E-03
 -1        63 1.75575E-03 1.34338E-04 3.01074E-03
 -1        64 1.62315E-01-2.51644E-03 2.42357E-02
 -1        65 3.31030E-02-5.19794E-04-1.50514E-02
 -1        66 9.15187E-02-9.24248E-04-2.18044E-02
 -1        67 8.56563E-03-2.39938E-05-8.91579E-03
 -1        68 1.39476E-01-1.67970E-03-2.38579E-02
 -1        69 4.99784E-02-5.06112E-04-1.77336E-02
 -1        70 1.14830E-01-1.25411E-03-2.31064E-02
 -1        71 1.86157E-02 1.07815E-04-1.15781E-02
 -1        72 6.96952E-02-6.91775E-04-2.00234E-02
 -1        73 1.60172E-01-1.90578E-03-2.42786E-02
 -1        74 2.12951E-03 1.95538E-04-3.43604E-03
 -1        75 1.87491E-03-1.30561E-04-3.45658E-03
 -1        76 1.62307E-01-1.94486E-03-2.45113E-02
 -1        77 3.28262E-02-5.92134E-04-1.11193E-04
 -1        78 9.17910E-02-1.21174E-03 4.24020E-04
 -1        79 7.43854E-03 6.58027E-05 9.05361E-04
 -1        80 1.39609E-01-1.86111E-03-3.56197E-03
 -1        81 4.98604E-02-6.20715E-04-6.56422E-04
 -1        82 1.78983E-02-3.45863E-04-6.77639E-04
 -1        83 1.15304E-01-1.52117E-03 7.04003E-04
 -1        84 6.99207E-02-1.02231E-03-2.63705E-04
 -1        85 1.60566E-01-2.27320E-03 6.14335E-03
 -1        86 1.44655E-03-2.05362E-04-8.18017E-04
 -1        87 1.29745E-03 3.81007E-04 1.19085E-03
 -1        88 1.62502E-01-2.10849E-03-1.05817E-02
 -1        89 3.19051E-02-4.20934E-04 3.66782E-04
 -1        90 9.11622E-02-1.27336E-03 1.08892E-03
 -1        91 7.30707E-03-2.73429E-04 1.49289E-03
 -1        92 1.39068E-01-1.80273E-03-2.87580E-03
 -1        93 4.94618E-02-7.00532E-04-1.86770E-04
 -1        94 1.80570E-02-3.44897E-04-3.52109E-04
 -1        95 1.14868E-01-1.58686E-03 1.32919E-03